<?xml version="1.0" encoding="UTF-8"?>

<!-- generated on Wed Mar 26 21:44:58 2014 by SUMO sumo Version 0.18.0
<?xml version="1.0" encoding="UTF-8"?>

<configuration xmlns:xsi="http://www.w3.org/2001/XMLSchema-instance" xsi:noNamespaceSchemaLocation="http://sumo.sf.net/xsd/sumoConfiguration.xsd">

    <input>
        <net-file value="scratch/cross.net.xml"/>
        <route-files value="scratch/cross.rou.xml"/>
        <additional-files value="scratch/cross.det.xml"/>
    </input>

    <output>
        <save-state.prefix value="scratch/state"/>
    </output>

    <time>
        <begin value="0"/>
    </time>

    <report>
        <verbose value="true"/>
        <no-step-log value="true"/>
    </report>

    <traci_server>
        <remote-port value="8813"/>
    </traci_server>

</configuration>
-->

<detector xmlns:xsi="http://www.w3.org/2001/XMLSchema-instance" xsi:noNamespaceSchemaLocation="http://sumo.sf.net/xsd/det_e1_file.xsd">
   <interval begin="0.00" end="30.00" id="0" nVehContrib="0" flow="0.00" occupancy="0.00" speed="-1.00" length="-1.00" nVehEntered="0"/>
   <interval begin="30.00" end="60.00" id="0" nVehContrib="0" flow="0.00" occupancy="0.00" speed="-1.00" length="-1.00" nVehEntered="0"/>
   <interval begin="60.00" end="90.00" id="0" nVehContrib="0" flow="0.00" occupancy="0.00" speed="-1.00" length="-1.00" nVehEntered="0"/>
   <interval begin="90.00" end="120.00" id="0" nVehContrib="0" flow="0.00" occupancy="0.00" speed="-1.00" length="-1.00" nVehEntered="0"/>
   <interval begin="120.00" end="150.00" id="0" nVehContrib="2" flow="240.00" occupancy="10.78" speed="11.52" length="17.00" nVehEntered="2"/>
   <interval begin="150.00" end="180.00" id="0" nVehContrib="1" flow="120.00" occupancy="2.93" speed="19.35" length="17.00" nVehEntered="1"/>
   <interval begin="180.00" end="210.00" id="0" nVehContrib="0" flow="0.00" occupancy="0.00" speed="-1.00" length="-1.00" nVehEntered="0"/>
   <interval begin="210.00" end="240.00" id="0" nVehContrib="1" flow="120.00" occupancy="3.73" speed="15.18" length="17.00" nVehEntered="1"/>
   <interval begin="240.00" end="270.00" id="0" nVehContrib="0" flow="0.00" occupancy="0.00" speed="-1.00" length="-1.00" nVehEntered="0"/>
   <interval begin="270.00" end="300.00" id="0" nVehContrib="0" flow="0.00" occupancy="0.00" speed="-1.00" length="-1.00" nVehEntered="0"/>
   <interval begin="300.00" end="330.00" id="0" nVehContrib="0" flow="0.00" occupancy="0.00" speed="-1.00" length="-1.00" nVehEntered="0"/>
   <interval begin="330.00" end="360.00" id="0" nVehContrib="1" flow="120.00" occupancy="3.83" speed="14.80" length="17.00" nVehEntered="1"/>
   <interval begin="360.00" end="390.00" id="0" nVehContrib="3" flow="360.00" occupancy="14.21" speed="12.96" length="17.00" nVehEntered="3"/>
   <interval begin="390.00" end="420.00" id="0" nVehContrib="1" flow="120.00" occupancy="3.71" speed="15.28" length="17.00" nVehEntered="1"/>
   <interval begin="420.00" end="450.00" id="0" nVehContrib="1" flow="120.00" occupancy="39.92" speed="8.21" length="17.00" nVehEntered="1"/>
   <interval begin="450.00" end="480.00" id="0" nVehContrib="1" flow="120.00" occupancy="11.73" speed="1.27" length="17.00" nVehEntered="1"/>
   <interval begin="480.00" end="510.00" id="0" nVehContrib="2" flow="240.00" occupancy="10.52" speed="11.80" length="17.00" nVehEntered="2"/>
   <interval begin="510.00" end="540.00" id="0" nVehContrib="1" flow="120.00" occupancy="43.36" speed="1.31" length="17.00" nVehEntered="1"/>
   <interval begin="540.00" end="570.00" id="0" nVehContrib="1" flow="120.00" occupancy="3.74" speed="15.16" length="17.00" nVehEntered="1"/>
   <interval begin="570.00" end="600.00" id="0" nVehContrib="0" flow="0.00" occupancy="0.00" speed="-1.00" length="-1.00" nVehEntered="0"/>
   <interval begin="600.00" end="630.00" id="0" nVehContrib="1" flow="120.00" occupancy="2.95" speed="19.22" length="17.00" nVehEntered="1"/>
   <interval begin="630.00" end="660.00" id="0" nVehContrib="0" flow="0.00" occupancy="0.00" speed="-1.00" length="-1.00" nVehEntered="0"/>
   <interval begin="660.00" end="690.00" id="0" nVehContrib="1" flow="120.00" occupancy="3.76" speed="15.07" length="17.00" nVehEntered="1"/>
   <interval begin="690.00" end="720.00" id="0" nVehContrib="1" flow="120.00" occupancy="2.95" speed="19.22" length="17.00" nVehEntered="1"/>
   <interval begin="720.00" end="750.00" id="0" nVehContrib="1" flow="120.00" occupancy="2.95" speed="19.18" length="17.00" nVehEntered="1"/>
   <interval begin="750.00" end="780.00" id="0" nVehContrib="3" flow="360.00" occupancy="9.65" speed="17.86" length="17.00" nVehEntered="3"/>
   <interval begin="780.00" end="810.00" id="0" nVehContrib="0" flow="0.00" occupancy="0.00" speed="-1.00" length="-1.00" nVehEntered="0"/>
   <interval begin="810.00" end="840.00" id="0" nVehContrib="3" flow="360.00" occupancy="13.26" speed="14.06" length="17.00" nVehEntered="3"/>
   <interval begin="840.00" end="870.00" id="0" nVehContrib="1" flow="120.00" occupancy="3.76" speed="15.05" length="17.00" nVehEntered="1"/>
   <interval begin="870.00" end="900.00" id="0" nVehContrib="2" flow="240.00" occupancy="32.39" speed="5.24" length="17.00" nVehEntered="2"/>
   <interval begin="900.00" end="930.00" id="0" nVehContrib="0" flow="0.00" occupancy="0.00" speed="-1.00" length="-1.00" nVehEntered="0"/>
   <interval begin="930.00" end="960.00" id="0" nVehContrib="2" flow="240.00" occupancy="10.71" speed="11.58" length="17.00" nVehEntered="2"/>
   <interval begin="960.00" end="990.00" id="0" nVehContrib="1" flow="120.00" occupancy="2.95" speed="19.21" length="17.00" nVehEntered="1"/>
   <interval begin="990.00" end="1020.00" id="0" nVehContrib="1" flow="120.00" occupancy="10.22" speed="14.93" length="17.00" nVehEntered="1"/>
   <interval begin="1020.00" end="1050.00" id="0" nVehContrib="2" flow="240.00" occupancy="27.08" speed="5.26" length="17.00" nVehEntered="2"/>
   <interval begin="1050.00" end="1080.00" id="0" nVehContrib="0" flow="0.00" occupancy="0.00" speed="-1.00" length="-1.00" nVehEntered="0"/>
   <interval begin="1080.00" end="1110.00" id="0" nVehContrib="1" flow="120.00" occupancy="3.80" speed="14.93" length="17.00" nVehEntered="1"/>
   <interval begin="1110.00" end="1140.00" id="0" nVehContrib="0" flow="0.00" occupancy="0.00" speed="-1.00" length="-1.00" nVehEntered="0"/>
   <interval begin="1140.00" end="1170.00" id="0" nVehContrib="1" flow="120.00" occupancy="3.74" speed="15.14" length="17.00" nVehEntered="1"/>
   <interval begin="1170.00" end="1200.00" id="0" nVehContrib="1" flow="120.00" occupancy="3.13" speed="18.09" length="17.00" nVehEntered="1"/>
   <interval begin="1200.00" end="1230.00" id="0" nVehContrib="0" flow="0.00" occupancy="0.00" speed="-1.00" length="-1.00" nVehEntered="0"/>
   <interval begin="1230.00" end="1260.00" id="0" nVehContrib="0" flow="0.00" occupancy="0.00" speed="-1.00" length="-1.00" nVehEntered="0"/>
   <interval begin="1260.00" end="1290.00" id="0" nVehContrib="0" flow="0.00" occupancy="0.00" speed="-1.00" length="-1.00" nVehEntered="0"/>
   <interval begin="1290.00" end="1320.00" id="0" nVehContrib="0" flow="0.00" occupancy="0.00" speed="-1.00" length="-1.00" nVehEntered="0"/>
   <interval begin="1320.00" end="1350.00" id="0" nVehContrib="1" flow="120.00" occupancy="3.81" speed="14.88" length="17.00" nVehEntered="1"/>
   <interval begin="1350.00" end="1380.00" id="0" nVehContrib="1" flow="120.00" occupancy="2.95" speed="19.22" length="17.00" nVehEntered="1"/>
   <interval begin="1380.00" end="1410.00" id="0" nVehContrib="0" flow="0.00" occupancy="0.00" speed="-1.00" length="-1.00" nVehEntered="0"/>
   <interval begin="1410.00" end="1440.00" id="0" nVehContrib="1" flow="120.00" occupancy="2.93" speed="19.36" length="17.00" nVehEntered="1"/>
   <interval begin="1440.00" end="1470.00" id="0" nVehContrib="1" flow="120.00" occupancy="3.74" speed="15.16" length="17.00" nVehEntered="1"/>
   <interval begin="1470.00" end="1500.00" id="0" nVehContrib="2" flow="240.00" occupancy="10.81" speed="11.24" length="17.00" nVehEntered="2"/>
   <interval begin="1500.00" end="1530.00" id="0" nVehContrib="2" flow="240.00" occupancy="6.74" speed="17.12" length="17.00" nVehEntered="2"/>
   <interval begin="1530.00" end="1560.00" id="0" nVehContrib="0" flow="0.00" occupancy="0.00" speed="-1.00" length="-1.00" nVehEntered="0"/>
   <interval begin="1560.00" end="1590.00" id="0" nVehContrib="1" flow="120.00" occupancy="2.93" speed="19.36" length="17.00" nVehEntered="1"/>
   <interval begin="1590.00" end="1620.00" id="0" nVehContrib="2" flow="240.00" occupancy="10.47" speed="11.75" length="17.00" nVehEntered="2"/>
   <interval begin="1620.00" end="1650.00" id="0" nVehContrib="1" flow="120.00" occupancy="37.37" speed="1.52" length="17.00" nVehEntered="1"/>
   <interval begin="1650.00" end="1680.00" id="0" nVehContrib="1" flow="120.00" occupancy="2.92" speed="19.40" length="17.00" nVehEntered="1"/>
   <interval begin="1680.00" end="1710.00" id="0" nVehContrib="1" flow="120.00" occupancy="4.29